 Q-Chem 6.0, Q-Chem, Inc., Pleasanton, CA (2022)
 Q-Chem 6.0.0 for Intel X86 EM64T Linux

User input:
--------------------------------------------------------------
$molecule
0 1
H    0.6529991   -0.8397898    2.1600000
C    0.1160991   -0.7669898    1.2087000
C   -1.2739009   -0.7097898    1.1973000
H   -1.8308009   -0.7375898    2.1393000
C   -1.9562009   -0.6173898   -0.0114000
C   -1.2488009   -0.5820898   -1.2088000
H   -1.7858009   -0.5093898   -2.1599000
C    0.1410991   -0.6393898   -1.1973000
H    0.6976991   -0.6117898   -2.1395000
C    0.8234991   -0.7317898    0.0114000
H    1.9171991   -0.7767898    0.0205000
N   -3.0500009   -0.5724898   -0.0204000
O   -3.6539119   -0.5902088    1.0093688
O   -3.6930521   -0.4991650   -1.1679836
$end

$rem
BASIS  =  6-31G
GUI  =  2
METHOD  =  B3LYP
$end

--------------------------------------------------------------

             Standard Nuclear Orientation (Angstroms)
    I     Atom           X                Y                Z
 ----------------------------------------------------------------
    1      H       2.2999767812    -2.1169432870    -0.0072045536
    2      C       1.7322855688    -1.1808613422    -0.0039765602
    3      C       0.3413909654    -1.2110930506    -0.0037619944
    4      H      -0.1854311728    -2.1706363571    -0.0068486738
    5      C      -0.3800273552    -0.0217376120     0.0002364610
    6      C       0.2891421337     1.1979446643     0.0041029809
    7      H      -0.2786387619     2.1338188714     0.0072371556
    8      C       1.6799440636     1.2280684645     0.0037895846
    9      H       2.2064690272     2.1877920784     0.0066545063
   10      C       2.4014622510     0.0387162207    -0.0002048207
   11      H       3.4958697543     0.0623740469    -0.0003602081
   12      N      -1.4745275318    -0.0455033464     0.0002930179
   13      O      -2.0460973221    -1.0936753599     0.0097611329
   14      O      -2.1541200116     1.0831621104    -0.0100915402
 ----------------------------------------------------------------

   10    -436.4469220723      7.16e-06  Convergence criterion met
 Total energy in the final basis set =     -436.4469220723

                    Orbital Energies (a.u.)
 --------------------------------------------------------------

 Alpha MOs
 -- Occupied --
-19.1619 -19.1403 -14.5387 -10.2460 -10.2332 -10.2288 -10.2271 -10.2237
-10.2223  -1.2840  -1.0492  -0.9625  -0.8779  -0.7883  -0.7430  -0.6543
 -0.6046  -0.5909  -0.5625  -0.5355  -0.5169  -0.4748  -0.4628  -0.4536
 -0.3991  -0.3963  -0.3750  -0.3011  -0.2995  -0.2907  -0.2751  -0.2584

          Ground-State Mulliken Net Atomic Charges

     Atom                 Charge (a.u.)
  ----------------------------------------
      1 H                     0.151617
      2 C                    -0.140402
      3 C                    -0.060036
      4 H                     0.204011
      5 C                     0.316090
      6 C                    -0.062289
      7 H                     0.206963
      8 C                    -0.145243
      9 H                     0.151821
     10 C                    -0.097298
     11 H                     0.153806
     12 N                    -0.069140
     13 O                    -0.300515
     14 O                    -0.309383
  ----------------------------------------
  Sum of atomic charges =     0.000000

                    Cartesian Multipole Moments
 -----------------------------------------------------------------
    Charge (ESU x 10^10)
                 0.0000
    Dipole Moment (Debye)
         X       5.9699      Y      -0.2719      Z       0.0038
       Tot       5.9761
    Quadrupole Moments (Debye-Ang)
        XX     -56.1749     XY       0.6796     YY     -47.3297
        XZ      -0.0106     YZ       0.0812     ZZ     -51.3154

 Total job time:  5.01s(wall), 5.01s(cpu)
        *  Thank you very much for using Q-Chem.  Have a nice day.  *
