 Q-Chem 6.0, Q-Chem, Inc., Pleasanton, CA (2022)
 Q-Chem 6.0.0 for Intel X86 EM64T Linux

User input:
--------------------------------------------------------------
$molecule
0 1
H   -2.8673270    3.3316838    1.7108101
C   -2.9273892    2.2227969    1.5729069
N   -1.5297807    1.7370070    1.5139797
H   -1.0752900    2.1093805    0.7078076
H   -1.5098650    0.7394261    1.4781086
C   -3.6571409    1.6023574    2.7590846
H   -4.6711686    2.0122058    2.8546629
H   -3.1288971    1.8091776    3.6994809
H   -3.7487470    0.5112294    2.6667397
C   -3.7126375    1.9317093    0.2971586
O   -3.4969831    1.0861271   -0.5532313
O   -4.7856787    2.7239993    0.0811885
H   -5.2236225    2.4681134   -0.7249730
$end

$rem
BASIS  =  6-31G
GUI  =  2
JOB_TYPE  =  Optimization
METHOD  =  HF
SCF_CONVERGENCE  =  8
$end

$geom_opt
hessian_verify = recomputed
final_vibrational_analysis = true
$end

--------------------------------------------------------------

   15    -321.7113128929      4.20e-09  Convergence criterion met
 Total energy in the final basis set =     -321.7113128929
   13    -321.7163821318      6.70e-09  Convergence criterion met
 Total energy in the final basis set =     -321.7163821318
   12    -321.7181955674      7.98e-09  Convergence criterion met
 Total energy in the final basis set =     -321.7181955674
   13    -321.7185534578      3.20e-09  Convergence criterion met
 Total energy in the final basis set =     -321.7185534578
   12    -321.7187987718      3.68e-09  Convergence criterion met
 Total energy in the final basis set =     -321.7187987718
   12    -321.7189641724      6.58e-09  Convergence criterion met
 Total energy in the final basis set =     -321.7189641724
   11    -321.7190132246      9.52e-09  Convergence criterion met
 Total energy in the final basis set =     -321.7190132246
   12    -321.7190615845      4.26e-09  Convergence criterion met
   12    -321.7192082883      7.97e-09  Convergence criterion met
 Total energy in the final basis set =     -321.7192082883
   12    -321.7192614427      8.01e-09  Convergence criterion met
 Total energy in the final basis set =     -321.7192614427
   12    -321.7192801598      3.32e-09  Convergence criterion met
 Total energy in the final basis set =     -321.7192801598
   10    -321.7192831170      6.03e-09  Convergence criterion met
 Total energy in the final basis set =     -321.7192831170
    9    -321.7192832750      5.22e-09  Convergence criterion met
 Total energy in the final basis set =     -321.7192832750
    2    -321.7192832750      1.17e-09  Convergence criterion met
 Total energy in the final basis set =     -321.7192832750
    2    -321.7192832750      4.72e-10  Convergence criterion met
 Total energy in the final basis set =     -321.7192832750

                    Orbital Energies (a.u.)
 --------------------------------------------------------------

 Alpha MOs
 -- Occupied --
-20.6182 -20.5712 -15.5419 -11.4060 -11.2894 -11.2287  -1.4877  -1.3802
 -1.2065  -1.0308  -0.9194  -0.8144  -0.7197  -0.6971  -0.6825  -0.6367
 -0.6110  -0.5911  -0.5468  -0.5371  -0.5136  -0.4782  -0.4560  -0.3897

          Ground-State Mulliken Net Atomic Charges

     Atom                 Charge (a.u.)
  ----------------------------------------
      1 H                     0.217577
      2 C                    -0.065653
      3 N                    -0.807577
      4 H                     0.334523
      5 H                     0.335168
      6 C                    -0.442282
      7 H                     0.186912
      8 H                     0.192035
      9 H                     0.158533
     10 C                     0.742935
     11 O                    -0.557084
     12 O                    -0.734665
     13 H                     0.439578
  ----------------------------------------
  Sum of atomic charges =     0.000000

                    Cartesian Multipole Moments
 -----------------------------------------------------------------
    Charge (ESU x 10^10)
                -0.0000
    Dipole Moment (Debye)
         X      -0.3630      Y      -1.1204      Z       0.4056
       Tot       1.2456
    Quadrupole Moments (Debye-Ang)
        XX     -35.6514     XY       2.9081     YY     -38.6880
        XZ      -1.9629     YZ       3.0256     ZZ     -35.4531

 Final energy is -321.719283275037
	**  OPTIMIZATION CONVERGED  **
 Frequency:        61.67                 230.82                 245.82
 Force Cnst:      0.0103                 0.0347                 0.0399
 Red. Mass:       4.5761                 1.1062                 1.1198
 IR Intens:        3.269                 51.344                  1.498
 Frequency:       263.82                 331.35                 415.58
 Force Cnst:      0.1355                 0.1729                 0.2905
 Red. Mass:       3.3055                 2.6727                 2.8546
 IR Intens:        4.784                 13.317                 20.853
 Frequency:       534.93                 631.06                 679.98
 Force Cnst:      0.5810                 0.3030                 0.7216
 Red. Mass:       3.4463                 1.2914                 2.6487
 IR Intens:       26.304                172.747                 29.697
 Frequency:       775.94                 799.63                 870.08
 Force Cnst:      0.6124                 1.5267                 1.1533
 Red. Mass:       1.7264                 4.0526                 2.5857
 IR Intens:      343.194                 53.324                 18.585
 Frequency:      1013.09                1113.39                1189.90
 Force Cnst:      1.5135                 0.9082                 1.5101
 Red. Mass:       2.5029                 1.2435                 1.8103
 IR Intens:        3.582                  1.257                 39.373
 Frequency:      1230.00                1286.77                1390.35
 Force Cnst:      2.2865                 1.8681                 2.0338
 Red. Mass:       2.5652                 1.9150                 1.7857
 IR Intens:      316.346                  6.962                  2.436
 Frequency:      1429.59                1489.89                1543.61
 Force Cnst:      1.8916                 2.2625                 2.0448
 Red. Mass:       1.5709                 1.7299                 1.4566
 IR Intens:       17.845                 18.744                  5.351
 Frequency:      1576.05                1652.28                1656.49
 Force Cnst:      1.7940                 1.6857                 1.7044
 Red. Mass:       1.2258                 1.0480                 1.0542
 IR Intens:        7.886                 10.163                  7.679
 Frequency:      1858.23                1913.17                3201.22
 Force Cnst:      2.2282                20.5071                 6.2865
 Red. Mass:       1.0952                 9.5093                 1.0412
 IR Intens:       35.339                338.478                 21.787
 Frequency:      3240.60                3283.37                3313.31
 Force Cnst:      6.7081                 6.9517                 7.1341
 Red. Mass:       1.0842                 1.0945                 1.1030
 IR Intens:        9.595                 29.489                 16.417
 Frequency:      3784.13                3896.96                3989.94
 Force Cnst:      8.8301                 9.8306                 9.9941
 Red. Mass:       1.0466                 1.0987                 1.0655
 IR Intens:        5.339                 11.080                 93.402

 STANDARD THERMODYNAMIC QUANTITIES AT   298.15 K  AND     1.00 ATM

   This Molecule has  0 Imaginary Frequencies
   Zero point vibrational energy:       72.755 kcal/mol

   Atom    1 Element H  Has Mass    1.00783
   Atom    2 Element C  Has Mass   12.00000
   Atom    3 Element N  Has Mass   14.00307
   Atom    4 Element H  Has Mass    1.00783
   Atom    5 Element H  Has Mass    1.00783
   Atom    6 Element C  Has Mass   12.00000
   Atom    7 Element H  Has Mass    1.00783
   Atom    8 Element H  Has Mass    1.00783
   Atom    9 Element H  Has Mass    1.00783
   Atom   10 Element C  Has Mass   12.00000
   Atom   11 Element O  Has Mass   15.99491
   Atom   12 Element O  Has Mass   15.99491
   Atom   13 Element H  Has Mass    1.00783
   Molecular Mass:    89.047700 amu
   Principal axes and moments of inertia in amu*Bohr^2:
                             1           2           3
    Eigenvalues --      356.34163   575.14638   806.20139
          X               0.99973    -0.01718    -0.01576
          Y               0.01760     0.99948     0.02696
          Z               0.01528    -0.02723     0.99951
   Rotational Symmetry Number is   1
   The Molecule is an Asymmetric Top
   Translational Enthalpy:        0.889 kcal/mol
   Rotational Enthalpy:           0.889 kcal/mol
   Vibrational Enthalpy:         75.132 kcal/mol
   gas constant (RT):             0.592 kcal/mol
   Translational Entropy:        39.372  cal/mol.K
   Rotational Entropy:           26.604  cal/mol.K
   Vibrational Entropy:          14.070  cal/mol.K

   Total Enthalpy:               77.501 kcal/mol
   Total Entropy:                80.046  cal/mol.K

             Standard Nuclear Orientation (Angstroms)
    I     Atom           X                Y                Z
 ----------------------------------------------------------------
    1      H       0.6492967040    -0.4177442550     1.4285615490
    2      C       0.6621943366    -0.1035567272     0.3924413870
    3      N       1.5138307012     1.0524071536     0.2712499951
    4      H       1.3440160923     1.7869512607     0.9217277840
    5      H       1.6375069275     1.3946253628    -0.6564275634
    6      C       1.2051292535    -1.2612404148    -0.4568445818
    7      H       0.6015268848    -2.1502131718    -0.3409400437
    8      H       2.2183602133    -1.4724326775    -0.1467338485
    9      H       1.2213935328    -0.9885432351    -1.5068293162
   10      C      -0.7756571275     0.1828126317     0.0102824912
   11      O      -1.1838939252     1.1846092980    -0.5349300109
   12      O      -1.6045819413    -0.8341936552     0.3422344381
   13      H      -2.5165575204    -0.6858668555     0.1024498609
 ----------------------------------------------------------------

 Total job time:  51.02s(wall), 51.07s(cpu)
        *  Thank you very much for using Q-Chem.  Have a nice day.  *
