 Q-Chem 6.0, Q-Chem, Inc., Pleasanton, CA (2022)
 Q-Chem 6.0.0 for Intel X86 EM64T Linux

User input:
--------------------------------------------------------------
$molecule
0 1
C    1.9658793   -0.1276090   -0.0000407
C    0.5687377    0.5227970   -0.0000472
C   -0.5687319   -0.5227810   -0.0000360
C   -1.9658734    0.1276253   -0.0000424
H    2.7415018    0.6325126   -0.0000197
H    2.1002934   -0.7502484   -0.8796035
H    2.1002619   -0.7502619    0.8795171
H    0.4690106    1.1614923   -0.8758186
H    0.4690265    1.1614206    0.8757795
H   -0.4690203   -1.1613855    0.8758044
H   -0.4690052   -1.1614951   -0.8757938
H   -2.1002569    0.7502934    0.8795046
H   -2.7414960   -0.6324962   -0.0000089
H   -2.1002861    0.7502495   -0.8796161
$end

$rem
BASIS  =  STO-3G
GUI  =  2
JOB_TYPE  =  PES_Scan
METHOD  =  HF
$end

$scan
tors 1 2 3 4 -180 180 15
$end

--------------------------------------------------------------

    9    -155.4666480938      5.94e-09  Convergence criterion met
 Total energy in the final basis set =     -155.4666480938
 Final energy is   -155.466648093758
 **  OPTIMIZATION CONVERGED  **
    9    -155.4666480889      5.94e-09  Convergence criterion met
 Total energy in the final basis set =     -155.4666480889
    9    -155.4615429625      7.33e-09  Convergence criterion met
 Total energy in the final basis set =     -155.4615429625
    9    -155.4639522688      6.83e-09  Convergence criterion met
 Total energy in the final basis set =     -155.4639522688
    9    -155.4654237547      6.29e-09  Convergence criterion met
 Total energy in the final basis set =     -155.4654237547
    9    -155.4657947356      6.23e-09  Convergence criterion met
 Total energy in the final basis set =     -155.4657947356
    9    -155.4658743108      6.10e-09  Convergence criterion met
 Total energy in the final basis set =     -155.4658743108
 **  OPTIMIZATION CONVERGED  **
 **  OPTIMIZATION CONVERGED  **
    9    -155.4622377645      7.15e-09  Convergence criterion met
 Total energy in the final basis set =     -155.4622377645
    9    -155.4646964348      6.48e-09  Convergence criterion met
 Total energy in the final basis set =     -155.4646964348
    9    -155.4661962629      6.10e-09  Convergence criterion met
 Total energy in the final basis set =     -155.4661962629
    9    -155.4665628123      6.09e-09  Convergence criterion met
 Total energy in the final basis set =     -155.4665628123
    9    -155.4666384369      5.93e-09  Convergence criterion met
 Total energy in the final basis set =     -155.4666384369
    9    -155.4666416965      5.96e-09  Convergence criterion met
 Total energy in the final basis set =     -155.4666416965

             Standard Nuclear Orientation (Angstroms)
    I     Atom           X                Y                Z
 ----------------------------------------------------------------
    1      C       1.5961345268     1.1547406804     0.0000508627
    2      C       0.7597846335    -0.1396851562     0.0000509752
    3      C      -0.7597846335     0.1396851562     0.0000509752
    4      C      -1.5961345268    -1.1547406804     0.0000508627
    5      H       2.6572986674     0.9241318916     0.0129204687
    6      H       1.3691480870     1.7594741191     0.8730726219
    7      H       1.3878113801     1.7472925730    -0.8859083042
    8      H       1.0157212981    -0.7335359595     0.8756871036
    9      H       1.0152850813    -0.7333518552    -0.8758268762
   10      H      -1.0152850813     0.7333518552    -0.8758268762
   11      H      -1.0157212981     0.7335359595     0.8756871036
   12      H      -1.3878113801    -1.7472925730    -0.8859083042
   13      H      -2.6572986674    -0.9241318916     0.0129204687
   14      H      -1.3691480870    -1.7594741191     0.8730726219
 ----------------------------------------------------------------

    9    -155.4666424982      5.95e-09  Convergence criterion met
 Total energy in the final basis set =     -155.4666424982

             Orbital Energies (a.u.) and Symmetries
 --------------------------------------------------------------

 Alpha MOs, Restricted
 -- Occupied --
-11.038 -11.038 -11.032 -11.032  -1.027  -0.943  -0.827  -0.758
  1 B     1 A     2 B     2 A     3 A     3 B     4 A     4 B
 -0.610  -0.555  -0.542  -0.539  -0.485  -0.470  -0.433  -0.431
  5 A     6 A     5 B     6 B     7 B     7 A     8 B     8 A
 -0.415
  9 A

 Beta MOs, Restricted
 -- Occupied --
-11.038 -11.038 -11.032 -11.032  -1.027  -0.943  -0.827  -0.758
  1 B     1 A     2 B     2 A     3 A     3 B     4 A     4 B
 -0.610  -0.555  -0.542  -0.539  -0.485  -0.470  -0.433  -0.431
  5 A     6 A     5 B     6 B     7 B     7 A     8 B     8 A
 -0.415
  9 A

          Ground-State Mulliken Net Atomic Charges

     Atom                 Charge (a.u.)
  ----------------------------------------
      1 C                    -0.178149
      2 C                    -0.094375
      3 C                    -0.094375
      4 C                    -0.178149
      5 H                     0.057557
      6 H                     0.056428
      7 H                     0.056406
      8 H                     0.051052
      9 H                     0.051082
     10 H                     0.051082
     11 H                     0.051052
     12 H                     0.056406
     13 H                     0.057557
     14 H                     0.056428
  ----------------------------------------
  Sum of atomic charges =     0.000000

                    Cartesian Multipole Moments
 -----------------------------------------------------------------
    Charge (ESU x 10^10)
                -0.0000
    Dipole Moment (Debye)
         X       0.0000      Y       0.0000      Z      -0.0005
       Tot       0.0005
    Quadrupole Moments (Debye-Ang)
        XX     -27.0528     XY      -0.3111     YY     -27.0738
        XZ      -0.0000     YZ      -0.0000     ZZ     -26.4548

 Final energy is   -155.466642498185
 **  OPTIMIZATION CONVERGED  **
 Total job time:  113.57s(wall), 113.39s(cpu)
        *  Thank you very much for using Q-Chem.  Have a nice day.  *
