 Q-Chem 6.0, Q-Chem, Inc., Pleasanton, CA (2022)
 Q-Chem 6.0.0 for Intel X86 EM64T Linux

User input:
--------------------------------------------------------------
$molecule
0 1
H    1.3505733    0.6134426    0.9875000
C    0.9170733    0.5948426   -0.0209000
H    1.3323733    1.4503426   -0.5693000
H    1.2809733   -0.3155574   -0.5145000
C   -0.5861267    0.6398426    0.0209000
H   -1.0014267   -0.2160574    0.5687000
H   -0.9502267    1.5499426    0.5151000
H   -1.0195267    0.6217426   -0.9875000
$end

$rem
BASIS  =  6-31G
GUI  =  2
METHOD  =  B3LYP
$end

--------------------------------------------------------------

             Standard Nuclear Orientation (Angstroms)
    I     Atom           X                Y                Z
 ----------------------------------------------------------------
    1      H      -1.1568057498     0.5859205147     0.8355502133
    2      C      -0.7522323253    -0.0000057447    -0.0000032157
    3      H      -1.1568394406    -1.0165498750     0.0895959661
    4      H      -1.1567601225     0.4306874865    -0.9250723655
    5      C       0.7522218879    -0.0000121309     0.0000169564
    6      H       1.1568003777     1.0164929230    -0.0903017068
    7      H       1.1569572141    -0.4301043007     0.9253787782
    8      H       1.1567103456    -0.5863394948    -0.8352333294
 ----------------------------------------------------------------

    6     -79.8122487568      2.51e-06  Convergence criterion met
 Total energy in the final basis set =      -79.8122487568

                    Orbital Energies (a.u.)
 --------------------------------------------------------------

 Alpha MOs
 -- Occupied --
-10.1654 -10.1652  -0.7550  -0.6131  -0.4336  -0.4336  -0.3702  -0.3372
 -0.3371

          Ground-State Mulliken Net Atomic Charges

     Atom                 Charge (a.u.)
  ----------------------------------------
      1 H                     0.133478
      2 C                    -0.400447
      3 H                     0.133469
      4 H                     0.133505
      5 C                    -0.400442
      6 H                     0.133463
      7 H                     0.133489
      8 H                     0.133485
  ----------------------------------------
  Sum of atomic charges =     0.000000

                    Cartesian Multipole Moments
 -----------------------------------------------------------------
    Charge (ESU x 10^10)
                 0.0000
    Dipole Moment (Debye)
         X      -0.0000      Y       0.0001      Z      -0.0002
       Tot       0.0002
    Quadrupole Moments (Debye-Ang)
        XX     -15.2335     XY      -0.0002     YY     -14.8116
        XZ       0.0002     YZ      -0.0001     ZZ     -14.8116

 Total job time:  0.62s(wall), 0.59s(cpu)
        *  Thank you very much for using Q-Chem.  Have a nice day.  *
