 Q-Chem 6.0, Q-Chem, Inc., Pleasanton, CA (2022)
 Q-Chem 6.0.0 for Intel X86 EM64T Linux

User input:
--------------------------------------------------------------
$molecule
0 1
H        -0.9378502980    0.0000000000    1.1119778829
C         0.0000000000    0.0000000000    0.5216047349
H         0.9378502980    0.0000000000    1.1119778829
O         0.0000000000    0.0000000000   -0.6813412007
$end

$rem
BASIS  =  6-31g
CC_DO_DYSON  =  1
CVS_IP_STATES  =  [1,0,0,0]
GUI  =  2
MEM_TOTAL  =  4000
METHOD  =  EOM-CCSD
N_FROZEN_CORE  =  2
$end

--------------------------------------------------------------

             Standard Nuclear Orientation (Angstroms)
    I     Atom           X                Y                Z
 ----------------------------------------------------------------
    1      H      -0.9378502980    -0.0000000000     1.1180494723
    2      C       0.0000000000     0.0000000000     0.5276763243
    3      H       0.9378502980     0.0000000000     1.1180494723
    4      O      -0.0000000000    -0.0000000000    -0.6752696113
 ----------------------------------------------------------------

   12    -113.8074122886      4.26e-09  Convergence criterion met
 Total energy in the final basis set =     -113.8074122886
 CCSD total energy          = -114.03510954
        Solving for CVS-EOMIP-CCSD A1 transitions.
 EOMIP transition 1/A1
 Total energy = -103.10187509 a.u.  Excitation energy = 297.5084 eV.
 Reference -- CVS-EOM-IP-CCSD state  1/A1   transition

             Orbital Energies (a.u.) and Symmetries
 --------------------------------------------------------------

 Alpha MOs, Restricted
 -- Occupied --
-20.595 -11.355  -1.433  -0.871  -0.702  -0.646  -0.536  -0.439
  1 A1    2 A1    3 A1    4 A1    1 B1    5 A1    1 B2    2 B1

 Beta MOs, Restricted
 -- Occupied --
-20.595 -11.355  -1.433  -0.871  -0.702  -0.646  -0.536  -0.439
  1 A1    2 A1    3 A1    4 A1    1 B1    5 A1    1 B2    2 B1

          Ground-State Mulliken Net Atomic Charges

     Atom                 Charge (a.u.)
  ----------------------------------------
      1 H                     0.146319
      2 C                     0.155132
      3 H                     0.146319
      4 O                    -0.447770
  ----------------------------------------
  Sum of atomic charges =     0.000000

                    Cartesian Multipole Moments
 -----------------------------------------------------------------
    Charge (ESU x 10^10)
                -0.0000
    Dipole Moment (Debye)
         X       0.0000      Y      -0.0000      Z       2.9947
       Tot       2.9947
    Quadrupole Moments (Debye-Ang)
        XX     -11.5420     XY       0.0000     YY     -11.6877
        XZ       0.0000     YZ      -0.0000     ZZ     -12.5057

 Total job time:  5.13s(wall), 5.17s(cpu)
        *  Thank you very much for using Q-Chem.  Have a nice day.  *
