 Q-Chem 6.0 (devel), Q-Chem, Inc., Pleasanton, CA (2022)
 Q-Chem 6.0.2 for Intel X86 EM64T Linux

User input:
--------------------------------------------------------------
$molecule
0 1
H        -0.9378502980    0.0000000000    1.1119778829
C         0.0000000000    0.0000000000    0.5216047349
H         0.9378502980    0.0000000000    1.1119778829
O         0.0000000000    0.0000000000   -0.6813412007
$end

$rem
   BASIS  =  6-31G
   EE_SINGLETS  =  [1,1,1,1]
   EE_TRIPLETS  =  [1,1,1,1]
   MEM_TOTAL  =  4000
   METHOD  =  EOM-CCSD
   CC_TRANS_PROP = true
   MOLDEN_FORMAT  =  true
   NTO_PAIRS  =  2
   STATE_ANALYSIS  =  true
$end
--------------------------------------------------------------

             Standard Nuclear Orientation (Angstroms)
    I     Atom           X                Y                Z
 ----------------------------------------------------------------
    1      H      -0.9378502980    -0.0000000000     1.1180494723
    2      C       0.0000000000     0.0000000000     0.5276763243
    3      H       0.9378502980     0.0000000000     1.1180494723
    4      O      -0.0000000000    -0.0000000000    -0.6752696113
 ----------------------------------------------------------------

   12    -113.8074122886      4.26e-09  Convergence criterion met
 Total energy in the final basis set =     -113.8074122886
 CCSD total energy          = -114.03510954
 EOMEE transition 1/A1
 Total energy = -113.64401221 a.u.  Excitation energy = 10.6423 eV.
 Excited state properties for  EOMEE-CCSD transition 1/A1
 EOMEE transition 1/A2
 Total energy = -113.88892663 a.u.  Excitation energy = 3.9778 eV.
 Excited state properties for  EOMEE-CCSD transition 1/A2
 EOMEE transition 1/B1
 Total energy = -113.68357353 a.u.  Excitation energy = 9.5658 eV.
 Excited state properties for  EOMEE-CCSD transition 1/B1
 EOMEE transition 1/B2
 Total energy = -113.68900879 a.u.  Excitation energy = 9.4179 eV.
 Excited state properties for  EOMEE-CCSD transition 1/B2
 EOMEE transition 1/A1
 Total energy = -113.81159879 a.u.  Excitation energy = 6.0820 eV.
 Excited state properties for  EOMEE-CCSD transition 1/A1
 EOMEE transition 1/A2
 Total energy = -113.90369771 a.u.  Excitation energy = 3.5759 eV.
 Excited state properties for  EOMEE-CCSD transition 1/A2
 EOMEE transition 1/B1
 Total energy = -113.72043809 a.u.  Excitation energy = 8.5626 eV.
 Excited state properties for  EOMEE-CCSD transition 1/B1
 EOMEE transition 1/B2
 Total energy = -113.72416403 a.u.  Excitation energy = 8.4613 eV.
 Excited state properties for  EOMEE-CCSD transition 1/B2

             Orbital Energies (a.u.) and Symmetries
 --------------------------------------------------------------

 Alpha MOs, Restricted
 -- Occupied --
-20.595 -11.355  -1.433  -0.871  -0.702  -0.646  -0.536  -0.439
  1 A1    2 A1    3 A1    4 A1    1 B1    5 A1    1 B2    2 B1

 Beta MOs, Restricted
 -- Occupied --
-20.595 -11.355  -1.433  -0.871  -0.702  -0.646  -0.536  -0.439
  1 A1    2 A1    3 A1    4 A1    1 B1    5 A1    1 B2    2 B1

          Ground-State Mulliken Net Atomic Charges

     Atom                 Charge (a.u.)
  ----------------------------------------
      1 H                     0.146319
      2 C                     0.155132
      3 H                     0.146319
      4 O                    -0.447770
  ----------------------------------------
  Sum of atomic charges =     0.000000

                    Cartesian Multipole Moments
 -----------------------------------------------------------------
    Charge (ESU x 10^10)
                -0.0000
    Dipole Moment (Debye)
         X      -0.0000      Y      -0.0000      Z       2.9947
       Tot       2.9947
    Quadrupole Moments (Debye-Ang)
        XX     -11.5420     XY       0.0000     YY     -11.6877
        XZ      -0.0000     YZ      -0.0000     ZZ     -12.5057

 Total job time:  36.21s(wall), 83.83s(cpu)
        *  Thank you very much for using Q-Chem.  Have a nice day.  *
