 Q-Chem 6.0, Q-Chem, Inc., Pleasanton, CA (2022)
 Q-Chem 6.0.0 for Intel X86 EM64T Linux

User input:
--------------------------------------------------------------
$molecule
0 3
C    0.0000000    0.0000000    0.1316756
H   -0.9058016    0.0000000   -0.3950267
H    0.9058016    0.0000000   -0.3950267
$end

$rem
BASIS  =  6-31G
CC_EOM_PROP_TE  =  1
CC_REF_PROP_TE  =  1
GUI  =  2
MEM_TOTAL  =  4000
METHOD  =  EOM-CCSD
SF_STATES  =  [2,0,0,2]
$end

--------------------------------------------------------------

             Standard Nuclear Orientation (Angstroms)
    I     Atom           X                Y                Z
 ----------------------------------------------------------------
    1      C       0.0000000000     0.0000000000     0.1316755750
    2      H      -0.9058016000    -0.0000000000    -0.3950267250
    3      H       0.9058016000     0.0000000000    -0.3950267250
 ----------------------------------------------------------------

   12     -38.9079077035      3.54e-09  Convergence criterion met
 Total energy in the final basis set =      -38.9079077035
 CCSD total energy          = -38.97396403
        Solving for EOMSF-CCSD A1 transitions.
 EOMSF transition 1/A1
 Total energy = -38.97364616 a.u.  Excitation energy = 0.0086 eV.
 EOMSF transition 2/A1
 Total energy = -38.89248865 a.u.  Excitation energy = 2.2171 eV.
 EOMSF-CCSD transition 1/A1
 EOMSF-CCSD transition 2/A1
 Excited state properties for  EOMSF-CCSD transition 1/A1
 Excited state properties for  EOMSF-CCSD transition 2/A1
        Solving for EOMSF-CCSD B2 transitions.
 EOMSF transition 1/B2
 Total energy = -38.93067951 a.u.  Excitation energy = 1.1778 eV.
 EOMSF transition 2/B2
 Total energy = -38.81371267 a.u.  Excitation energy = 4.3607 eV.
 EOMSF-CCSD transition 1/B2
 EOMSF-CCSD transition 2/B2
 Excited state properties for  EOMSF-CCSD transition 1/B2
 Excited state properties for  EOMSF-CCSD transition 2/B2

             Orbital Energies (a.u.) and Symmetries
 --------------------------------------------------------------

 Alpha MOs, Unrestricted
 -- Occupied --
-11.260  -0.963  -0.610  -0.473  -0.412
  1 A1    2 A1    1 B1    3 A1    1 B2

 Beta MOs, Unrestricted
 -- Occupied --
-11.210  -0.793  -0.566
  1 A1    2 A1    1 B1

          Ground-State Mulliken Net Atomic Charges

     Atom                 Charge (a.u.)    Spin (a.u.)
  --------------------------------------------------------
      1 C                    -0.278792       2.270974
      2 H                     0.139396      -0.135487
      3 H                     0.139396      -0.135487
  --------------------------------------------------------
  Sum of atomic charges =    -0.000000

                    Cartesian Multipole Moments
 -----------------------------------------------------------------
    Charge (ESU x 10^10)
                -0.0000
    Dipole Moment (Debye)
         X       0.0000      Y      -0.0000      Z      -0.6324
       Tot       0.6324
    Quadrupole Moments (Debye-Ang)
        XX      -6.3291     XY       0.0000     YY      -7.8113
        XZ      -0.0000     YZ       0.0000     ZZ      -7.1847

 Total job time:  10.11s(wall), 10.10s(cpu)
        *  Thank you very much for using Q-Chem.  Have a nice day.  *
