 Q-Chem 6.0, Q-Chem, Inc., Pleasanton, CA (2022)
 Q-Chem 6.0.0 for Intel X86 EM64T Linux

User input:
--------------------------------------------------------------
$molecule
0 1
H   -2.6389191    0.1213256   -0.8036639
C   -2.1529831    0.0549256    0.1785590
H   -2.5169409    0.8918256    0.7890547
H   -2.4745630   -0.8796744    0.6553851
C   -0.6634734    0.1064256    0.0393504
O    0.1680625   -0.7182744    0.3732807
O   -0.1776151    1.2307256   -0.5404288
H    0.7720849    1.1852256   -0.5912078
$end

$rem
BASIS  =  6-31G
GUI  =  2
JOB_TYPE  =  Optimization
METHOD  =  HF
SCF_CONVERGENCE  =  8
$end

--------------------------------------------------------------

   14    -227.6972458819      3.13e-09  Convergence criterion met
 Total energy in the final basis set =     -227.6972458819
   12    -227.6998746695      4.58e-09  Convergence criterion met
 Total energy in the final basis set =     -227.6998746695
   11    -227.7010660033      6.99e-09  Convergence criterion met
 Total energy in the final basis set =     -227.7010660033
   11    -227.7010975762      2.74e-09  Convergence criterion met
 Total energy in the final basis set =     -227.7010975762
   10    -227.7011152102      4.21e-09  Convergence criterion met
 Total energy in the final basis set =     -227.7011152102
    8    -227.7011158563      8.27e-09  Convergence criterion met
 Total energy in the final basis set =     -227.7011158563
 Final energy is -227.701115856255
	**  OPTIMIZATION CONVERGED  **
 Total job time:  4.80s(wall), 4.78s(cpu)
        *  Thank you very much for using Q-Chem.  Have a nice day.  *
 Q-Chem 6.0, Q-Chem, Inc., Pleasanton, CA (2022)
 Q-Chem 6.0.0 for Intel X86 EM64T Linux

User input:
--------------------------------------------------------------

$molecule
read
$end

$rem
BASIS  =  6-31G
GUI  =  2
JOB_TYPE  =  Frequency
METHOD  =  HF
SCF_CONVERGENCE  =  8
$end

--------------------------------------------------------------

             Standard Nuclear Orientation (Angstroms)
    I     Atom           X                Y                Z
 ----------------------------------------------------------------
    1      H      -1.6460090473    -0.7340350493     0.8737447697
    2      C      -1.3843350965    -0.1518978791    -0.0000111599
    3      H      -1.6457523781    -0.7358729349    -0.8725991602
    4      H      -1.9322788816     0.7759531061    -0.0010164414
    5      C       0.0782471446     0.1279882176    -0.0000299125
    6      O       0.5982553009     1.2214933469     0.0000089185
    7      O       0.8146591123    -1.0095053410     0.0000074822
    8      H       1.7572527131    -0.8584911997    -0.0000139389
 ----------------------------------------------------------------

   14    -227.7011158568      2.60e-09  Convergence criterion met
 Total energy in the final basis set =     -227.7011158568

                    Orbital Energies (a.u.)
 --------------------------------------------------------------

 Alpha MOs
 -- Occupied --
-20.6166 -20.5703 -11.4147 -11.2488  -1.4871  -1.3795  -1.0439  -0.8422
 -0.7014  -0.6851  -0.6589  -0.5805  -0.5713  -0.5650  -0.4782  -0.4560

          Ground-State Mulliken Net Atomic Charges

     Atom                 Charge (a.u.)
  ----------------------------------------
      1 H                     0.208625
      2 C                    -0.515698
      3 H                     0.208613
      4 H                     0.208187
      5 C                     0.718663
      6 O                    -0.546570
      7 O                    -0.721232
      8 H                     0.439411
  ----------------------------------------
  Sum of atomic charges =     0.000000

                    Cartesian Multipole Moments
 -----------------------------------------------------------------
    Charge (ESU x 10^10)
                 0.0000
    Dipole Moment (Debye)
         X      -0.8310      Y      -1.7480      Z       0.0001
       Tot       1.9355
    Quadrupole Moments (Debye-Ang)
        XX     -18.2220     XY      -2.4938     YY     -30.4136
        XZ      -0.0004     YZ      -0.0000     ZZ     -23.0747

 Frequency:       108.59                 452.56                 588.90
 Force Cnst:      0.0075                 0.3511                 0.3039
 Red. Mass:       1.0829                 2.9098                 1.4873
 IR Intens:        0.411                  6.398                 54.223
 Frequency:       621.67                 701.50                 930.80
 Force Cnst:      0.9741                 0.4854                 2.2229
 Red. Mass:       4.2779                 1.6743                 4.3547
 IR Intens:       64.948                201.062                  1.725
 Frequency:      1127.72                1205.07                1298.51
 Force Cnst:      1.2393                 1.4480                 1.6507
 Red. Mass:       1.6539                 1.6924                 1.6616
 IR Intens:       96.985                 17.075                208.792
 Frequency:      1483.30                1584.39                1623.86
 Force Cnst:      3.2556                 1.9363                 1.6440
 Red. Mass:       2.5114                 1.3092                 1.0582
 IR Intens:      101.249                 45.636                 22.412
 Frequency:      1630.28                1925.33                3223.80
 Force Cnst:      1.6385                19.2042                 6.3503
 Red. Mass:       1.0463                 8.7930                 1.0371
 IR Intens:       12.126                360.832                  1.781
 Frequency:      3295.20                3340.95                3990.99
 Force Cnst:      7.0316                 7.2495                 9.9992
 Red. Mass:       1.0991                 1.1023                 1.0655
 IR Intens:        4.612                  5.941                 92.645

 STANDARD THERMODYNAMIC QUANTITIES AT   298.15 K  AND     1.00 ATM

   This Molecule has  0 Imaginary Frequencies
   Zero point vibrational energy:       41.648 kcal/mol

   Atom    1 Element H  Has Mass    1.00783
   Atom    2 Element C  Has Mass   12.00000
   Atom    3 Element H  Has Mass    1.00783
   Atom    4 Element H  Has Mass    1.00783
   Atom    5 Element C  Has Mass   12.00000
   Atom    6 Element O  Has Mass   15.99491
   Atom    7 Element O  Has Mass   15.99491
   Atom    8 Element H  Has Mass    1.00783
   Molecular Mass:    60.021140 amu
   Principal axes and moments of inertia in amu*Bohr^2:
                             1           2           3
    Eigenvalues --      159.07613   189.67650   337.77660
          X               0.99831    -0.05804    -0.00000
          Y               0.05804     0.99831    -0.00000
          Z               0.00000     0.00000     1.00000
   Rotational Symmetry Number is   1
   The Molecule is an Asymmetric Top
   Translational Enthalpy:        0.889 kcal/mol
   Rotational Enthalpy:           0.889 kcal/mol
   Vibrational Enthalpy:         42.602 kcal/mol
   gas constant (RT):             0.592 kcal/mol
   Translational Entropy:        38.196  cal/mol.K
   Rotational Entropy:           23.837  cal/mol.K
   Vibrational Entropy:           5.553  cal/mol.K

   Total Enthalpy:               44.972 kcal/mol
   Total Entropy:                67.586  cal/mol.K
 Total job time:  3.30s(wall), 3.29s(cpu)
        *  Thank you very much for using Q-Chem.  Have a nice day.  *
