 Q-Chem 6.0, Q-Chem, Inc., Pleasanton, CA (2022)
 Q-Chem 6.0.0 for Intel X86 EM64T Linux

User input:
--------------------------------------------------------------
$molecule
0 1
C   -2.9561468    1.0707764    0.0023981
C   -1.6511144    1.0941247    0.0014084
C   -0.3460809    1.1177354    0.0002208
H   -3.4839976    0.2420132   -0.4563828
H   -3.5125515    1.8825867    0.4577838
H    0.1832249    1.7885029   -0.6674703
H    0.2087278    0.4670880    0.6671153
$end

$rem
BASIS  =  STO-3G
GUI  =  2
JOB_TYPE  =  Optimization
METHOD  =  HF
SCF_CONVERGENCE  =  8
$end

--------------------------------------------------------------

   10    -114.4153152231      9.47e-09  Convergence criterion met
 Total energy in the final basis set =     -114.4153152231
   10    -114.4190439407      6.85e-09  Convergence criterion met
 Total energy in the final basis set =     -114.4190439407
    9    -114.4211243600      8.31e-09  Convergence criterion met
 Total energy in the final basis set =     -114.4211243600
    9    -114.4216873646      7.51e-09  Convergence criterion met
 Total energy in the final basis set =     -114.4216873646
    9    -114.4217089902      3.71e-09  Convergence criterion met
 Total energy in the final basis set =     -114.4217089902
    8    -114.4217179143      6.09e-09  Convergence criterion met
 Total energy in the final basis set =     -114.4217179143
    7    -114.4217189123      2.74e-09  Convergence criterion met
 Total energy in the final basis set =     -114.4217189123

                    Orbital Energies (a.u.)
 --------------------------------------------------------------

 Alpha MOs
 -- Occupied --
-11.0303 -11.0244 -11.0244  -1.0168  -0.9005  -0.6634  -0.5672  -0.5650
 -0.5650  -0.3234  -0.3234

          Ground-State Mulliken Net Atomic Charges

     Atom                 Charge (a.u.)
  ----------------------------------------
      1 C                    -0.169755
      2 C                     0.028541
      3 C                    -0.169755
      4 H                     0.077744
      5 H                     0.077740
      6 H                     0.077741
      7 H                     0.077744
  ----------------------------------------
  Sum of atomic charges =     0.000000

                    Cartesian Multipole Moments
 -----------------------------------------------------------------
    Charge (ESU x 10^10)
                 0.0000
    Dipole Moment (Debye)
         X      -0.0000      Y      -0.0003      Z      -0.0000
       Tot       0.0003
    Quadrupole Moments (Debye-Ang)
        XX     -15.8277     XY      -0.0002     YY     -17.5113
        XZ      -0.0011     YZ       0.0000     ZZ     -17.5112

 Final energy is -114.421718912283
	**  OPTIMIZATION CONVERGED  **

             Standard Nuclear Orientation (Angstroms)
    I     Atom           X                Y                Z
 ----------------------------------------------------------------
    1      C       1.2879313548    -0.0003122491    -0.0007075922
    2      C       0.0000064541     0.0008591082    -0.0002615227
    3      C      -1.2879158676    -0.0000519583    -0.0000083247
    4      H       1.8612433562     0.6488108774    -0.6503936978
    5      H       1.8597696675    -0.6507149491     0.6491117395
    6      H      -1.8597244500    -0.6503576836    -0.6499580337
    7      H      -1.8612572893     0.6490952178     0.6496189758
 ----------------------------------------------------------------

 Total job time:  1.13s(wall), 1.13s(cpu)
        *  Thank you very much for using Q-Chem.  Have a nice day.  *
