 Q-Chem 6.0, Q-Chem, Inc., Pleasanton, CA (2022)
 Q-Chem 6.0.0 for Intel X86 EM64T Linux

User input:
--------------------------------------------------------------
$molecule
0 1
C   -2.9561468    1.0707764    0.0023981
C   -1.6511144    1.0941247    0.0014084
C   -0.3460809    1.1177354    0.0002208
H   -3.4839976    0.2420132   -0.4563828
H   -3.5125515    1.8825867    0.4577838
H    0.1832249    1.7885029   -0.6674703
H    0.2087278    0.4670880    0.6671153
$end

$rem
BASIS  =  STO-3G
CIS_N_ROOTS  =  5
CIS_SINGLETS  =  1
CIS_STATE_DERIV  =  1
CIS_TRIPLETS  =  0
GUI  =  2
JOB_TYPE  =  Optimization
METHOD  =  HF
SCF_CONVERGENCE  =  8
$end

--------------------------------------------------------------

   10    -114.4153152231      9.47e-09  Convergence criterion met
 Total energy in the final basis set =     -114.4153152231
   11    -114.3881050282      2.61e-09  Convergence criterion met
 Total energy in the final basis set =     -114.3881050282
   11    -114.3973204144      1.86e-09  Convergence criterion met
 Total energy in the final basis set =     -114.3973204144
   10    -114.4018850633      8.28e-09  Convergence criterion met
 Total energy in the final basis set =     -114.4018850633
   10    -114.4023410466      3.86e-09  Convergence criterion met
 Total energy in the final basis set =     -114.4023410466
   10    -114.4019989835      4.86e-09  Convergence criterion met
 Total energy in the final basis set =     -114.4019989835
    9    -114.4017566744      8.36e-09  Convergence criterion met
 Total energy in the final basis set =     -114.4017566744
    9    -114.4017987921      4.70e-09  Convergence criterion met
 Total energy in the final basis set =     -114.4017987921
    7    -114.4018687994      8.69e-09  Convergence criterion met
 Total energy in the final basis set =     -114.4018687994

               CIS Excitation Energies
 ---------------------------------------------------

 Excited state   1: excitation energy (eV) =    6.9094
 Total energy for state  1:                  -114.14795405 au
    Multiplicity: Singlet
    Trans. Mom.: -0.0000 X  -0.0000 Y   0.0007 Z
    Strength   :     0.0000000780
    D(   10) --> V(    1) amplitude =  0.7009
    D(   11) --> V(    2) amplitude = -0.7008

 Excited state   2: excitation energy (eV) =    7.3622
 Total energy for state  2:                  -114.13131412 au
    Multiplicity: Singlet
    Trans. Mom.:  0.0000 X   0.0018 Y  -0.0001 Z
    Strength   :     0.0000005582
    D(   10) --> V(    2) amplitude = -0.6965
    D(   11) --> V(    1) amplitude =  0.6970

 Excited state   3: excitation energy (eV) =    9.8347
 Total energy for state  3:                  -114.04045075 au
    Multiplicity: Singlet
    Trans. Mom.: -2.5573 X   0.0005 Y   0.0043 Z
    Strength   :     1.5757737451
    D(   10) --> V(    1) amplitude =  0.6625
    D(   11) --> V(    2) amplitude =  0.6626

 Excited state   4: excitation energy (eV) =   10.5979
 Total energy for state  4:                  -114.01240453 au
    Multiplicity: Singlet
    Trans. Mom.: -0.0004 X  -0.0083 Y  -0.0005 Z
    Strength   :     0.0000178065
    D(   10) --> V(    2) amplitude =  0.6779
    D(   11) --> V(    1) amplitude =  0.6773

 Excited state   5: excitation energy (eV) =   12.2726
 Total energy for state  5:                  -113.95085732 au
    Multiplicity: Singlet
    Trans. Mom.:  0.0052 X   0.0008 Y   0.0001 Z
    Strength   :     0.0000083724
    D(    6) --> V(    2) amplitude = -0.2353
    D(    9) --> V(    1) amplitude =  0.9358

 ---------------------------------------------------

                    Orbital Energies (a.u.)
 --------------------------------------------------------------

 Alpha MOs
 -- Occupied --
-11.0311 -11.0231 -11.0231  -0.9830  -0.8807  -0.6632  -0.5501  -0.5500
 -0.5479  -0.3022  -0.3021

          Ground-State Mulliken Net Atomic Charges

     Atom                 Charge (a.u.)
  ----------------------------------------
      1 C                    -0.159923
      2 C                     0.027568
      3 C                    -0.159912
      4 H                     0.072961
      5 H                     0.073181
      6 H                     0.073182
      7 H                     0.072943
  ----------------------------------------
  Sum of atomic charges =     0.000000

                    Cartesian Multipole Moments
 -----------------------------------------------------------------
    Charge (ESU x 10^10)
                -0.0000
    Dipole Moment (Debye)
         X      -0.0000      Y      -0.0009      Z       0.0001
       Tot       0.0009
    Quadrupole Moments (Debye-Ang)
        XX     -15.6755     XY       0.0003     YY     -17.6420
        XZ       0.0015     YZ      -0.0001     ZZ     -17.6411

 Final energy is -114.147954045183
	**  OPTIMIZATION CONVERGED  **

             Standard Nuclear Orientation (Angstroms)
    I     Atom           X                Y                Z
 ----------------------------------------------------------------
    1      C       1.3690250206    -0.0003378343    -0.0010016578
    2      C       0.0000345366     0.0066221034    -0.0000436881
    3      C      -1.3689499158     0.0000396201     0.0001812969
    4      H       1.9560204332     0.6458269968    -0.6496999601
    5      H       1.9519276329    -0.6506515105     0.6471888015
    6      H      -1.9518499813    -0.6502831062    -0.6480593987
    7      H      -1.9561545005     0.6461120940     0.6488361504
 ----------------------------------------------------------------

 Total job time:  2.81s(wall), 2.81s(cpu)
        *  Thank you very much for using Q-Chem.  Have a nice day.  *
