 Q-Chem 6.0, Q-Chem, Inc., Pleasanton, CA (2022)
 Q-Chem 6.0.0 for Intel X86 EM64T Linux

User input:
--------------------------------------------------------------
$molecule
0 2
C   -0.5723350    0.5147275    0.7148580
Cl    1.2006585    0.5468418    0.5854017
Br   -2.5002592    0.4796239    0.8559726
H   -0.5106301    1.0410241    1.6894817
H   -0.5546742   -0.5940343    0.6807325
H   -0.6516332    1.0972264   -0.2260007
$end

$rem
BASIS  =  6-31G
GUI  =  2
JOB_TYPE  =  Frequency
METHOD  =  HF
SCF_CONVERGENCE  =  8
$end

--------------------------------------------------------------

   15   -3070.9272909670      4.66e-09  Convergence criterion met
 Total energy in the final basis set =    -3070.9272909670
 Frequency:      -672.36                -374.30                -374.27
 Force Cnst:      2.1951                 0.3230                 0.3230
 Red. Mass:       8.2415                 3.9131                 3.9137
 IR Intens:       77.297                  7.551                  7.551
 Frequency:       444.83                1515.83                1516.17
 Force Cnst:      3.6706                 1.5256                 1.5262
 Red. Mass:      31.4837                 1.1269                 1.1268
 IR Intens:        0.271                  9.080                  9.080
 Frequency:      1700.24                1723.11                1723.14
 Force Cnst:      1.8567                 1.7751                 1.7751
 Red. Mass:       1.0901                 1.0147                 1.0147
 IR Intens:      117.184                  0.082                  0.083
 Frequency:      2811.81                2960.57                2960.96
 Force Cnst:      4.6955                 5.7834                 5.7850
 Red. Mass:       1.0080                 1.1199                 1.1199
 IR Intens:        0.528                 27.348                 27.379

 STANDARD THERMODYNAMIC QUANTITIES AT   298.15 K  AND     1.00 ATM

   This Molecule has  3 Imaginary Frequencies
   Zero point vibrational energy:       24.813 kcal/mol

   Atom    1 Element C  Has Mass   12.00000
   Atom    2 Element Cl Has Mass   34.96885
   Atom    3 Element Br Has Mass   78.91830
   Atom    4 Element H  Has Mass    1.00783
   Atom    5 Element H  Has Mass    1.00783
   Atom    6 Element H  Has Mass    1.00783
   Molecular Mass:   128.910640 amu
   Principal axes and moments of inertia in amu*Bohr^2:
                             1           2           3
    Eigenvalues --       13.28877  1228.46257  1228.46478
          X               1.00000     0.00000    -0.00000
          Y              -0.00000     1.00000     0.00005
          Z               0.00000    -0.00005     1.00000
   Rotational Symmetry Number is   1
   The Molecule is an Asymmetric Top
   Translational Enthalpy:        0.889 kcal/mol
   Rotational Enthalpy:           0.889 kcal/mol
   Vibrational Enthalpy:         24.990 kcal/mol
   gas constant (RT):             0.592 kcal/mol
   Translational Entropy:        40.475  cal/mol.K
   Rotational Entropy:           24.509  cal/mol.K
   Vibrational Entropy:           0.848  cal/mol.K

   Total Enthalpy:               27.360 kcal/mol
   Total Entropy:                65.832  cal/mol.K
 Total job time:  12.14s(wall), 12.15s(cpu)
        *  Thank you very much for using Q-Chem.  Have a nice day.  *
 Q-Chem 6.0, Q-Chem, Inc., Pleasanton, CA (2022)
 Q-Chem 6.0.0 for Intel X86 EM64T Linux

User input:
--------------------------------------------------------------

$molecule
read
$end

$rem
BASIS  =  6-31G
GEOM_OPT_HESSIAN  =  Read
GUI  =  2
JOB_TYPE  =  TS
METHOD  =  HF
SCF_CONVERGENCE  =  8
$end

--------------------------------------------------------------

   15   -3070.9272909645      4.66e-09  Convergence criterion met
 Total energy in the final basis set =    -3070.9272909645
   14   -3070.9838208383      4.05e-09  Convergence criterion met
 Total energy in the final basis set =    -3070.9838208383
   14   -3071.0197492001      3.82e-09  Convergence criterion met
 Total energy in the final basis set =    -3071.0197492001
   15   -3071.0199488509      5.14e-09  Convergence criterion met
 Total energy in the final basis set =    -3071.0199488509
   15   -3071.0200900047      5.55e-09  Convergence criterion met
 Total energy in the final basis set =    -3071.0200900047
   18   -3071.0397955194      2.83e-09  Convergence criterion met
 Total energy in the final basis set =    -3071.0397955194
   17   -3071.0464134535      8.92e-09  Convergence criterion met
   15   -3071.0536419610      3.04e-09  Convergence criterion met
 Total energy in the final basis set =    -3071.0536419610
   15   -3071.0536781465      3.70e-09  Convergence criterion met
 Total energy in the final basis set =    -3071.0536781465
   15   -3071.0537005034      3.43e-09  Convergence criterion met
 Total energy in the final basis set =    -3071.0537005034
   14   -3071.0537121145      9.86e-09  Convergence criterion met
 Total energy in the final basis set =    -3071.0537121145
   14   -3071.0537172021      7.34e-09  Convergence criterion met
 Total energy in the final basis set =    -3071.0537172021
   14   -3071.0537192595      5.08e-09  Convergence criterion met
 Total energy in the final basis set =    -3071.0537192595

             Standard Nuclear Orientation (Angstroms)
    I     Atom           X                Y                Z
 ----------------------------------------------------------------
    1      C      -0.6000155895     0.0006562379     0.0007953283
    2      Cl     -2.9866304409    -0.0019288321    -0.0021152800
    3      Br      1.8890911026    -0.0012749679    -0.0005727648
    4      H      -0.6100590904     0.9692245010    -0.4517836224
    5      H      -0.6097669526    -0.8755326605    -0.6114418830
    6      H      -0.6102207885    -0.0913947762     1.0659395794
 ----------------------------------------------------------------

   12   -3071.0537198476      7.30e-09  Convergence criterion met
 Total energy in the final basis set =    -3071.0537198476
 Final energy is   -3071.05371984757
 **  OPTIMIZATION CONVERGED  **

                    Orbital Energies (a.u.)
 --------------------------------------------------------------

 Alpha MOs
 -- Occupied --
********-104.8496 -65.1693 -58.5353 -58.5287 -58.5287 -11.3132 -10.5850
 -9.8418  -8.0682  -8.0473  -8.0473  -7.4650  -7.4443  -7.4443  -3.1766
 -3.1717  -3.1717  -3.1567  -3.1567  -1.1155  -1.0380  -0.9476  -0.6494
 -0.6492  -0.5488  -0.4841  -0.4841  -0.4770  -0.4394  -0.4394

 Beta MOs
 -- Occupied --
********-104.8400 -65.1672 -58.5274 -58.5274 -58.5256 -11.3248 -10.5755
 -9.8346  -8.0418  -8.0418  -8.0286  -7.4418  -7.4414  -7.4414  -3.1678
 -3.1646  -3.1646  -3.1555  -3.1555  -1.0559  -0.9923  -0.9238  -0.6548
 -0.6546  -0.4589  -0.4589  -0.4347  -0.4177  -0.4177

          Ground-State Mulliken Net Atomic Charges

     Atom                 Charge (a.u.)    Spin (a.u.)
  --------------------------------------------------------
      1 C                    -0.603966      -0.744792
      2 Cl                   -0.104088       0.782051
      3 Br                   -0.070802       0.776857
      4 H                     0.259587       0.061945
      5 H                     0.259711       0.062008
      6 H                     0.259559       0.061931
  --------------------------------------------------------
  Sum of atomic charges =    -0.000000

                    Cartesian Multipole Moments
 -----------------------------------------------------------------
    Charge (ESU x 10^10)
                -0.0000
    Dipole Moment (Debye)
         X       0.1144      Y       0.0027      Z       0.0026
       Tot       0.1145
    Quadrupole Moments (Debye-Ang)
        XX     -44.6824     XY      -0.0031     YY     -39.0476
        XZ      -0.0037     YZ       0.0005     ZZ     -39.0483

 Total job time:  75.04s(wall), 74.83s(cpu)
        *  Thank you very much for using Q-Chem.  Have a nice day.  *
