 Q-Chem 6.0, Q-Chem, Inc., Pleasanton, CA (2022)
 Q-Chem 6.0.0 for Intel X86 EM64T Linux

User input:
--------------------------------------------------------------
$molecule
1 1
Cu    0.4117537   -0.0402635    0.0000000
H   -1.1855664    0.4793123    0.0000000
H   -1.2434158   -0.3245173    0.0000000
$end

$rem
BASIS  =  def2-svpd
GUI  =  2
JOB_TYPE  =  Optimization
METHOD  =  wB97XD
SCF_CONVERGENCE  =  8
SYMMETRY  =  FALSE
$end

--------------------------------------------------------------

   12   -1641.2161444483      4.33e-09  Convergence criterion met
 Total energy in the final basis set =    -1641.2161444483
    9   -1641.2162104541      2.64e-09  Convergence criterion met
 Total energy in the final basis set =    -1641.2162104541
   10   -1641.2166416844      5.34e-09  Convergence criterion met
 Total energy in the final basis set =    -1641.2166416844
    9   -1641.2166643338      7.23e-09  Convergence criterion met
 Total energy in the final basis set =    -1641.2166643338
    8   -1641.2166696948      6.74e-09  Convergence criterion met
 Total energy in the final basis set =    -1641.2166696948
    8   -1641.2166701807      3.80e-09  Convergence criterion met
 Total energy in the final basis set =    -1641.2166701807
 Final energy is -1641.216670180719
	**  OPTIMIZATION CONVERGED  **
 Total job time:  36.19s(wall), 36.22s(cpu)
        *  Thank you very much for using Q-Chem.  Have a nice day.  *
 Q-Chem 6.0, Q-Chem, Inc., Pleasanton, CA (2022)
 Q-Chem 6.0.0 for Intel X86 EM64T Linux

User input:
--------------------------------------------------------------

$molecule
read
$end

$rem
BASIS  =  def2-svpd
GUI  =  2
JOB_TYPE  =  Frequency
METHOD  =  wB97XD
SCF_CONVERGENCE  =  8
SYMMETRY  =  FALSE
$end

--------------------------------------------------------------

             Standard Nuclear Orientation (Angstroms)
    I     Atom           X                Y                Z
 ----------------------------------------------------------------
    1      Cu      0.1096122150     0.0000002068    -0.0000000000
    2      H      -1.5893898684     0.3996104623     0.0000000000
    3      H      -1.5893643677    -0.3996164603     0.0000000000
 ----------------------------------------------------------------

   12   -1641.2166701808      4.21e-09  Convergence criterion met
 Total energy in the final basis set =    -1641.2166701808

             Orbital Energies (a.u.) and Symmetries
 --------------------------------------------------------------

 Alpha MOs, Restricted
 -- Occupied --
-323.54  -39.25  -34.45  -34.45  -34.45   -4.68   -3.17   -3.17
  1 A'    2 A'    3 A'    4 A'    1 A"    5 A'    6 A'    7 A'
 -3.168  -0.839  -0.653  -0.650  -0.648  -0.648  -0.636
  2 A"    8 A'    9 A'    3 A"   10 A'    4 A"   11 A'

 Beta MOs, Restricted
 -- Occupied --
-323.54  -39.25  -34.45  -34.45  -34.45   -4.68   -3.17   -3.17
  1 A'    2 A'    3 A'    4 A'    1 A"    5 A'    6 A'    7 A'
 -3.168  -0.839  -0.653  -0.650  -0.648  -0.648  -0.636
  2 A"    8 A'    9 A'    3 A"   10 A'    4 A"   11 A'

          Ground-State Mulliken Net Atomic Charges

     Atom                 Charge (a.u.)
  ----------------------------------------
      1 Cu                    0.722804
      2 H                     0.138649
      3 H                     0.138546
  ----------------------------------------
  Sum of atomic charges =     1.000000

                    Cartesian Multipole Moments
 -----------------------------------------------------------------
    Charge (ESU x 10^10)
                 4.8032
    Dipole Moment (Debye)
         X      -0.1416      Y       0.0000      Z      -0.0000
       Tot       0.1416
    Quadrupole Moments (Debye-Ang)
        XX      -7.5470     XY      -0.0000     YY     -10.2839
        XZ       0.0000     YZ       0.0000     ZZ     -10.9745

 Frequency:       922.36                1200.35                3810.38
 Force Cnst:      0.5211                 0.8570                 8.6218
 Red. Mass:       1.0395                 1.0095                 1.0079
 IR Intens:       18.099                 32.970                 22.550

 STANDARD THERMODYNAMIC QUANTITIES AT   298.15 K  AND     1.00 ATM

   This Molecule has  0 Imaginary Frequencies
   Zero point vibrational energy:        8.482 kcal/mol

   Atom    1 Element Cu Has Mass   62.92960
   Atom    2 Element H  Has Mass    1.00783
   Atom    3 Element H  Has Mass    1.00783
   Molecular Mass:    64.945260 amu
   Principal axes and moments of inertia in amu*Bohr^2:
                             1           2           3
    Eigenvalues --        1.14946    20.13278    21.28225
          X               1.00000    -0.00000     0.00000
          Y               0.00000     1.00000     0.00000
          Z              -0.00000    -0.00000     1.00000
   Rotational Symmetry Number is   1
   The Molecule is an Asymmetric Top
   Translational Enthalpy:        0.889 kcal/mol
   Rotational Enthalpy:           0.889 kcal/mol
   Vibrational Enthalpy:          8.523 kcal/mol
   gas constant (RT):             0.592 kcal/mol
   Translational Entropy:        38.431  cal/mol.K
   Rotational Entropy:           13.963  cal/mol.K
   Vibrational Entropy:           0.169  cal/mol.K

   Total Enthalpy:               10.893 kcal/mol
   Total Entropy:                52.563  cal/mol.K
 Total job time:  26.48s(wall), 26.50s(cpu)
        *  Thank you very much for using Q-Chem.  Have a nice day.  *
