 Q-Chem 6.0, Q-Chem, Inc., Pleasanton, CA (2022)
 Q-Chem 6.0.0 for Intel X86 EM64T Linux

User input:
--------------------------------------------------------------
$molecule
0 1
H   -1.6637381   -0.5703534   -2.2775110
C   -1.1452083   -0.5858988   -1.3275833
C    0.2521090   -0.6117757   -1.2944410
H    0.8146888   -0.6162116   -2.2190986
C    0.9237987   -0.6319841   -0.0677160
H    2.0063387   -0.6519873   -0.0534773
C    0.1984861   -0.6263485    1.1340086
C   -1.2043767   -0.6002154    1.0944984
H   -1.7777437   -0.5955325    2.0130399
C   -1.8728804   -0.5800996   -0.1339681
H   -2.9547307   -0.5600545   -0.1605913
N    0.8771238   -0.6469652    2.3772553
H    0.3513078   -0.6427932    3.2635656
H    1.9068361   -0.6667483    2.4140624
$end

$rem
BASIS  =  6-31G
GUI  =  2
METHOD  =  B3LYP
$end

--------------------------------------------------------------

             Standard Nuclear Orientation (Angstroms)
    I     Atom           X                Y                Z
 ----------------------------------------------------------------
    1      H       2.9607374506     0.0000020230     0.0001926263
    2      C       1.8783893392     0.0000002383     0.0000747168
    3      C       1.1795034106     1.2107116458    -0.0000232669
    4      H       1.7214481320     2.1476232237    -0.0000185230
    5      C      -0.2192197098     1.2125247487    -0.0000803936
    6      H      -0.7506269485     2.1559769545    -0.0001271664
    7      C      -0.9263540504     0.0000012784    -0.0000647516
    8      C      -0.2192188804    -1.2125282600    -0.0000797914
    9      H      -0.7506243032    -2.1559785289    -0.0000933566
   10      C       1.1795049900    -1.2107095640     0.0000223766
   11      H       1.7214517088    -2.1476217377     0.0000940999
   12      N      -2.3429120336    -0.0000009350     0.0000521373
   13      H      -2.8688176789    -0.8862678485    -0.0001200954
   14      H      -2.8688147214     0.8862719358     0.0006141153
 ----------------------------------------------------------------

    9    -287.5356000400      1.48e-06  Convergence criterion met
 Total energy in the final basis set =     -287.5356000400

                    Orbital Energies (a.u.)
 --------------------------------------------------------------

 Alpha MOs
 -- Occupied --
-14.3316 -10.2248 -10.1767 -10.1767 -10.1720 -10.1720 -10.1653  -0.9010
 -0.8275  -0.7376  -0.7191  -0.6065  -0.5917  -0.5203  -0.5058  -0.4704
 -0.4275  -0.4253  -0.4136  -0.3720  -0.3480  -0.3373  -0.2959  -0.2403
 -0.1905

          Ground-State Mulliken Net Atomic Charges

     Atom                 Charge (a.u.)
  ----------------------------------------
      1 H                     0.111767
      2 C                    -0.130633
      3 C                    -0.131952
      4 H                     0.119268
      5 C                    -0.151337
      6 H                     0.109606
      7 C                     0.328328
      8 C                    -0.151335
      9 H                     0.109606
     10 C                    -0.131953
     11 H                     0.119267
     12 N                    -0.823910
     13 H                     0.311640
     14 H                     0.311640
  ----------------------------------------
  Sum of atomic charges =     0.000000

                    Cartesian Multipole Moments
 -----------------------------------------------------------------
    Charge (ESU x 10^10)
                 0.0000
    Dipole Moment (Debye)
         X      -1.7097      Y       0.0000      Z       0.0008
       Tot       1.7097
    Quadrupole Moments (Debye-Ang)
        XX     -32.6750     XY       0.0000     YY     -36.1385
        XZ      -0.0019     YZ       0.0013     ZZ     -46.1097

 Total job time:  3.56s(wall), 3.56s(cpu)
        *  Thank you very much for using Q-Chem.  Have a nice day.  *
