 Q-Chem 6.0, Q-Chem, Inc., Pleasanton, CA (2022)
 Q-Chem 6.0.0 for Intel X86 EM64T Linux

User input:
--------------------------------------------------------------
$molecule
0 1
H    1.0413928    0.9159646    0.2334757
C    0.5593486    0.6711479   -0.7219493
H    0.9641722    1.3585595   -1.4760581
H    0.8812028   -0.3411818   -0.9985191
C   -0.9389129    0.7704776   -0.6285233
H   -1.2626799    1.0686473    0.3771573
H   -1.3401091    1.5112803   -1.3323254
H   -1.4227572   -0.1885321   -0.8548614
$end

$rem
BASIS  =  6-31G
GUI  =  2
METHOD  =  B3LYP
$end

--------------------------------------------------------------

             Standard Nuclear Orientation (Angstroms)
    I     Atom           X                Y                Z
 ----------------------------------------------------------------
    1      H       1.1568013435    -0.7409028537     0.7017783557
    2      C       0.7522322927     0.0000171052    -0.0000052689
    3      H       1.1568364757     0.9782188742     0.2907071170
    4      H       1.1567675077    -0.2373541447    -0.9924258206
    5      C      -0.7522218704     0.0000180297     0.0000048723
    6      H      -1.1567905420    -0.7409412629     0.7017364636
    7      H      -1.1569688397     0.9781581799     0.2907043124
    8      H      -1.1567084790    -0.2373896016    -0.9924980481
 ----------------------------------------------------------------

    6     -79.8073923437      2.54e-06  Convergence criterion met
 Total energy in the final basis set =      -79.8073923437

                    Orbital Energies (a.u.)
 --------------------------------------------------------------

 Alpha MOs
 -- Occupied --
-10.1638 -10.1637  -0.7545  -0.6119  -0.4342  -0.4342  -0.3695  -0.3341
 -0.3341

          Ground-State Mulliken Net Atomic Charges

     Atom                 Charge (a.u.)
  ----------------------------------------
      1 H                     0.136696
      2 C                    -0.410143
      3 H                     0.136717
      4 H                     0.136735
      5 C                    -0.410139
      6 H                     0.136696
      7 H                     0.136718
      8 H                     0.136719
  ----------------------------------------
  Sum of atomic charges =     0.000000

                    Cartesian Multipole Moments
 -----------------------------------------------------------------
    Charge (ESU x 10^10)
                 0.0000
    Dipole Moment (Debye)
         X       0.0000      Y      -0.0000      Z      -0.0002
       Tot       0.0002
    Quadrupole Moments (Debye-Ang)
        XX     -15.3162     XY      -0.0001     YY     -14.7470
        XZ      -0.0002     YZ       0.0002     ZZ     -14.7474

 Total job time:  0.62s(wall), 0.60s(cpu)
        *  Thank you very much for using Q-Chem.  Have a nice day.  *
