 Q-Chem 6.0, Q-Chem, Inc., Pleasanton, CA (2022)
 Q-Chem 6.0.0 for Intel X86 EM64T Linux

User input:
--------------------------------------------------------------
$molecule
0 1
S    0.0000000    0.0000000    1.1897210
C    0.0000000    1.2321840   -0.0104070
C    0.0000000   -1.2321840   -0.0104070
C    0.0000000    0.7131640   -1.2622250
C    0.0000000   -0.7131640   -1.2622250
H    0.0000000    2.2700100    0.2776190
H    0.0000000   -2.2700100    0.2776190
H    0.0000000    1.3132980   -2.1595960
H    0.0000000   -1.3132980   -2.1595960
$end

$rem
BASIS  =  AUG-PCSEG-0
CIS_N_ROOTS  =  20
CIS_SINGLETS  =  1
CIS_TRIPLETS  =  0
GUI  =  2
METHOD  =  wB97X-D
NTO_PAIRS  =  2
$end

--------------------------------------------------------------

             Standard Nuclear Orientation (Angstroms)
    I     Atom           X                Y                Z
 ----------------------------------------------------------------
    1      S       0.0000000000     0.0000000000     1.1897210455
    2      C       1.2321840000     0.0000000000    -0.0104069545
    3      C      -1.2321840000    -0.0000000000    -0.0104069545
    4      C       0.7131640000     0.0000000000    -1.2622249545
    5      C      -0.7131640000    -0.0000000000    -1.2622249545
    6      H       2.2700100000     0.0000000000     0.2776190455
    7      H      -2.2700100000    -0.0000000000     0.2776190455
    8      H       1.3132980000     0.0000000000    -2.1595959545
    9      H      -1.3132980000    -0.0000000000    -2.1595959545
 ----------------------------------------------------------------

   12    -552.0596820141      4.23e-09  Convergence criterion met
 Total energy in the final basis set =     -552.0596820141

         TDDFT/TDA Excitation Energies
 ---------------------------------------------------

 Excited state   1: excitation energy (eV) =    6.4153
 Total energy for state  1:                  -551.82392355 au
    Multiplicity: Singlet
    Trans. Mom.: -0.0000 X   0.0000 Y  -0.9095 Z
    Strength   :     0.1300016664
    D(   21) --> V(    1) amplitude =  0.8996
    D(   22) --> V(    8) amplitude =  0.3812

 Excited state   2: excitation energy (eV) =    6.5523
 Total energy for state  2:                  -551.81889076 au
    Multiplicity: Singlet
    Trans. Mom.:  0.9733 X   0.0000 Y  -0.0000 Z
    Strength   :     0.1520586861
    D(   22) --> V(    1) amplitude =  0.9470

 Excited state   3: excitation energy (eV) =    6.8588
 Total energy for state  3:                  -551.80762505 au
    Multiplicity: Singlet
    Trans. Mom.: -0.0000 X  -0.0000 Y  -0.0000 Z
    Strength   :     0.0000000000
    D(   22) --> V(    2) amplitude =  0.9462

 Excited state   4: excitation energy (eV) =    7.0105
 Total energy for state  4:                  -551.80205049 au
    Multiplicity: Singlet
    Trans. Mom.: -0.0000 X   0.2221 Y   0.0000 Z
    Strength   :     0.0084694861
    D(   22) --> V(    3) amplitude =  0.7103
    D(   22) --> V(    5) amplitude =  0.3390
    D(   22) --> V(    7) amplitude =  0.5573

 Excited state   5: excitation energy (eV) =    7.1527
 Total energy for state  5:                  -551.79682540 au
    Multiplicity: Singlet
    Trans. Mom.:  0.0000 X  -0.0000 Y   0.0000 Z
    Strength   :     0.0000000000
    D(   21) --> V(    3) amplitude =  0.4978
    D(   21) --> V(    5) amplitude =  0.4620
    D(   21) --> V(    7) amplitude =  0.7020

 Excited state   6: excitation energy (eV) =    7.2499
 Total energy for state  6:                  -551.79325334 au
    Multiplicity: Singlet
    Trans. Mom.: -0.0000 X  -0.0975 Y   0.0000 Z
    Strength   :     0.0016887018
    D(   21) --> V(    2) amplitude =  0.8386
    D(   22) --> V(    5) amplitude =  0.2952
    D(   22) --> V(    7) amplitude =  0.2923

 Excited state   7: excitation energy (eV) =    7.5552
 Total energy for state  7:                  -551.78203205 au
    Multiplicity: Singlet
    Trans. Mom.:  0.0000 X   0.3046 Y  -0.0000 Z
    Strength   :     0.0171709818
    D(   21) --> V(    2) amplitude =  0.3742
    D(   22) --> V(    3) amplitude =  0.6330
    D(   22) --> V(    5) amplitude = -0.4190
    D(   22) --> V(    7) amplitude = -0.4271

 Excited state   8: excitation energy (eV) =    7.6394
 Total energy for state  8:                  -551.77894006 au
    Multiplicity: Singlet
    Trans. Mom.: -0.0000 X   0.0000 Y   0.0000 Z
    Strength   :     0.0000000000
    D(   22) --> V(    4) amplitude =  0.9618

 Excited state   9: excitation energy (eV) =    7.9106
 Total energy for state  9:                  -551.76897400 au
    Multiplicity: Singlet
    Trans. Mom.:  0.0000 X   0.3611 Y  -0.0000 Z
    Strength   :     0.0252726163
    D(   21) --> V(    4) amplitude =  0.8579
    D(   21) --> V(    6) amplitude = -0.3157

 Excited state  10: excitation energy (eV) =    7.9348
 Total energy for state 10:                  -551.76808525 au
    Multiplicity: Singlet
    Trans. Mom.:  0.0000 X   0.0000 Y  -0.0000 Z
    Strength   :     0.0000000000
    D(   21) --> V(    3) amplitude =  0.6671
    D(   21) --> V(    5) amplitude = -0.2918
    D(   21) --> V(    7) amplitude = -0.3087
    D(   22) --> V(    6) amplitude = -0.5276

 Excited state  11: excitation energy (eV) =    8.0273
 Total energy for state 11:                  -551.76468542 au
    Multiplicity: Singlet
    Trans. Mom.: -0.0000 X   0.0000 Y   0.0000 Z
    Strength   :     0.0000000000
    D(   21) --> V(    3) amplitude =  0.4866
    D(   22) --> V(    6) amplitude =  0.7339

 Excited state  12: excitation energy (eV) =    8.0414
 Total energy for state 12:                  -551.76416735 au
    Multiplicity: Singlet
    Trans. Mom.: -0.0000 X   0.1234 Y   0.0000 Z
    Strength   :     0.0030002610
    D(   20) --> V(    1) amplitude =  0.9127
    D(   21) --> V(    4) amplitude = -0.2600

 Excited state  13: excitation energy (eV) =    8.3481
 Total energy for state 13:                  -551.75289355 au
    Multiplicity: Singlet
    Trans. Mom.: -0.0000 X   0.1091 Y  -0.0000 Z
    Strength   :     0.0024352061
    D(   21) --> V(    6) amplitude = -0.2480
    D(   22) --> V(    5) amplitude =  0.7351
    D(   22) --> V(    7) amplitude = -0.5357

 Excited state  14: excitation energy (eV) =    8.4188
 Total energy for state 14:                  -551.75029672 au
    Multiplicity: Singlet
    Trans. Mom.:  0.0000 X   0.0482 Y  -0.0000 Z
    Strength   :     0.0004790581
    D(   20) --> V(    1) amplitude =  0.2974
    D(   21) --> V(    4) amplitude =  0.3133
    D(   21) --> V(    6) amplitude =  0.8206

 Excited state  15: excitation energy (eV) =    8.4591
 Total energy for state 15:                  -551.74881676 au
    Multiplicity: Singlet
    Trans. Mom.:  0.8775 X   0.0000 Y  -0.0000 Z
    Strength   :     0.1595810620
    D(   21) --> V(    8) amplitude =  0.8675
    D(   22) --> V(    9) amplitude = -0.4038

 Excited state  16: excitation energy (eV) =    8.4715
 Total energy for state 16:                  -551.74836028 au
    Multiplicity: Singlet
    Trans. Mom.:  0.0000 X   0.0000 Y   1.4497 Z
    Strength   :     0.4361845795
    D(   18) --> V(    1) amplitude = -0.2317
    D(   21) --> V(    1) amplitude = -0.3001
    D(   21) --> V(    9) amplitude = -0.3322
    D(   22) --> V(    8) amplitude =  0.8275

 Excited state  17: excitation energy (eV) =    8.4962
 Total energy for state 17:                  -551.74745312 au
    Multiplicity: Singlet
    Trans. Mom.:  0.0000 X   0.0000 Y  -0.0000 Z
    Strength   :     0.0000000000
    D(   22) --> V(   10) amplitude =  0.9303

 Excited state  18: excitation energy (eV) =    8.7406
 Total energy for state 18:                  -551.73846954 au
    Multiplicity: Singlet
    Trans. Mom.:  0.0000 X   0.0000 Y   0.0000 Z
    Strength   :     0.0000000000
    D(   21) --> V(    5) amplitude =  0.7898
    D(   21) --> V(    7) amplitude = -0.5204
    D(   21) --> V(   14) amplitude = -0.2162

 Excited state  19: excitation energy (eV) =    8.7458
 Total energy for state 19:                  -551.73827865 au
    Multiplicity: Singlet
    Trans. Mom.: -0.1274 X  -0.0000 Y  -0.0000 Z
    Strength   :     0.0034795588
    D(   21) --> V(    8) amplitude =  0.3750
    D(   22) --> V(    9) amplitude =  0.8931

 Excited state  20: excitation energy (eV) =    8.9637
 Total energy for state 20:                  -551.73027131 au
    Multiplicity: Singlet
    Trans. Mom.:  0.0000 X  -0.0693 Y   0.0000 Z
    Strength   :     0.0010549117
    D(   21) --> V(   10) amplitude =  0.9503

 ---------------------------------------------------

  Excited state 1:   6.4153 eV (singlet)
  Excited state 2:   6.5523 eV (singlet)
  Excited state 3:   6.8588 eV (singlet)
  Excited state 4:   7.0105 eV (singlet)
  Excited state 5:   7.1527 eV (singlet)
  Excited state 6:   7.2499 eV (singlet)
  Excited state 7:   7.5552 eV (singlet)
  Excited state 8:   7.6394 eV (singlet)
  Excited state 9:   7.9106 eV (singlet)
  Excited state 10:   7.9348 eV (singlet)
  Excited state 11:   8.0273 eV (singlet)
  Excited state 12:   8.0414 eV (singlet)
  Excited state 13:   8.3481 eV (singlet)
  Excited state 14:   8.4188 eV (singlet)
  Excited state 15:   8.4591 eV (singlet)
  Excited state 16:   8.4715 eV (singlet)
  Excited state 17:   8.4962 eV (singlet)
  Excited state 18:   8.7406 eV (singlet)
  Excited state 19:   8.7458 eV (singlet)
  Excited state 20:   8.9637 eV (singlet)

             Orbital Energies (a.u.) and Symmetries
 --------------------------------------------------------------

 Alpha MOs, Restricted
 -- Occupied --
-89.028 -10.338 -10.338 -10.313 -10.313  -8.012  -6.074  -6.069
  1 A1    1 B1    2 A1    3 A1    2 B1    4 A1    3 B1    5 A1
 -6.065  -1.024  -0.857  -0.847  -0.670  -0.661  -0.628  -0.523
  1 B2    6 A1    7 A1    4 B1    8 A1    5 B1    9 A1    6 B1
 -0.496  -0.492  -0.486  -0.437  -0.347  -0.335
 10 A1    2 B2    7 B1   11 A1    3 B2    1 A2

 Beta MOs, Restricted
 -- Occupied --
-89.028 -10.338 -10.338 -10.313 -10.313  -8.012  -6.074  -6.069
  1 A1    1 B1    2 A1    3 A1    2 B1    4 A1    3 B1    5 A1
 -6.065  -1.024  -0.857  -0.847  -0.670  -0.661  -0.628  -0.523
  1 B2    6 A1    7 A1    4 B1    8 A1    5 B1    9 A1    6 B1
 -0.496  -0.492  -0.486  -0.437  -0.347  -0.335
 10 A1    2 B2    7 B1   11 A1    3 B2    1 A2

          Ground-State Mulliken Net Atomic Charges

     Atom                 Charge (a.u.)
  ----------------------------------------
      1 S                     0.401603
      2 C                    -0.907046
      3 C                    -0.907046
      4 C                    -0.035869
      5 C                    -0.035869
      6 H                     0.388061
      7 H                     0.388061
      8 H                     0.354053
      9 H                     0.354053
  ----------------------------------------
  Sum of atomic charges =     0.000000

                    Cartesian Multipole Moments
 -----------------------------------------------------------------
    Charge (ESU x 10^10)
                 0.0000
    Dipole Moment (Debye)
         X       0.0000      Y       0.0000      Z      -0.9846
       Tot       0.9846
    Quadrupole Moments (Debye-Ang)
        XX     -31.9481     XY       0.0000     YY     -41.7693
        XZ       0.0000     YZ      -0.0000     ZZ     -36.4117

 Total job time:  41.93s(wall), 41.95s(cpu)
        *  Thank you very much for using Q-Chem.  Have a nice day.  *
