 Q-Chem 6.0, Q-Chem, Inc., Pleasanton, CA (2022)
 Q-Chem 6.0.0 for Intel X86 EM64T Linux

User input:
--------------------------------------------------------------
$molecule
0 1
H   -0.9281198    1.1560216   -1.6280393
C   -0.5008009    0.3242696   -1.0587237
C   -0.4689356   -0.9524093   -1.6106091
H   -0.8710616   -1.1254058   -2.6139243
C    0.0739133   -2.0093449   -0.8872634
H    0.0988975   -3.0139975   -1.3214803
C    0.5850226   -1.7899008    0.3878990
H    1.0121697   -2.6216855    0.9570430
C    0.5530244   -0.5132911    0.9396974
H    0.9550385   -0.3406711    1.9431380
C    0.0101773    0.5437366    0.2163906
H   -0.0149397    1.5483200    0.6505205
$end

$rem
BASIS  =  6-31G
GUI  =  2
METHOD  =  B3LYP
$end

--------------------------------------------------------------

             Standard Nuclear Orientation (Angstroms)
    I     Atom           X                Y                Z
 ----------------------------------------------------------------
    1      H       1.9718502214     1.5138182745    -0.0000392184
    2      C       1.1033998505     0.8472396718     0.0000238261
    3      C       1.2854334174    -0.5320230610     0.0000123329
    4      H       2.2968020775    -0.9508403513    -0.0000883591
    5      C       0.1820228143    -1.3790837631    -0.0000106657
    6      H       0.3252424618    -2.4644332418    -0.0001319833
    7      C      -1.1034826155    -0.8471971578     0.0000602595
    8      H      -1.9717163438    -1.5138421286     0.0000300713
    9      C      -1.2853984403     0.5319853212    -0.0000268180
   10      H      -2.2969130751     0.9504876119    -0.0001485346
   11      C      -0.1820019359     1.3791449360     0.0000002255
   12      H      -0.3251038844     2.4644141529     0.0000230624
 ----------------------------------------------------------------

    6    -232.1979139591      1.86e-06  Convergence criterion met
 Total energy in the final basis set =     -232.1979139591

                    Orbital Energies (a.u.)
 --------------------------------------------------------------

 Alpha MOs
 -- Occupied --
-10.1847 -10.1845 -10.1845 -10.1840 -10.1840 -10.1838  -0.8563  -0.7459
 -0.7459  -0.6010  -0.6010  -0.5232  -0.4558  -0.4468  -0.4214  -0.4213
 -0.3650  -0.3413  -0.3412  -0.2498  -0.2498

          Ground-State Mulliken Net Atomic Charges

     Atom                 Charge (a.u.)
  ----------------------------------------
      1 H                     0.125747
      2 C                    -0.125649
      3 C                    -0.125882
      4 H                     0.125745
      5 C                    -0.125840
      6 H                     0.125724
      7 C                    -0.125500
      8 H                     0.125737
      9 C                    -0.125777
     10 H                     0.125698
     11 C                    -0.125734
     12 H                     0.125731
  ----------------------------------------
  Sum of atomic charges =     0.000000

                    Cartesian Multipole Moments
 -----------------------------------------------------------------
    Charge (ESU x 10^10)
                -0.0000
    Dipole Moment (Debye)
         X      -0.0009      Y       0.0001      Z      -0.0003
       Tot       0.0009
    Quadrupole Moments (Debye-Ang)
        XX     -31.6737     XY       0.0000     YY     -31.6739
        XZ      -0.0000     YZ       0.0002     ZZ     -38.8484

 Total job time:  1.83s(wall), 1.82s(cpu)
        *  Thank you very much for using Q-Chem.  Have a nice day.  *
